    1C
    1UUSER                                                              
    1UDATE              04.march.2023                                   
    1UTIME              18:34:46                                        
    1UHOST                                                              
    1UPGM               CalculiX                                        
    1UVERSION           Version 2.20                             
    1UCOMPILETIME       Sa 04 Mär 2023 18:27:49 CET                    
    1UDIR                                                               
    1UDBN                                                               
    1UMAT    1MAT-ALM                                                   
    2C                            64                                     1
 -1         1 0.00000E+00 0.00000E+00 0.00000E+00
 -1         2 3.33333E-01 0.00000E+00 0.00000E+00
 -1         3 6.66667E-01 0.00000E+00 0.00000E+00
 -1         4 1.00000E+00 0.00000E+00 0.00000E+00
 -1         5 0.00000E+00 3.33333E-01 0.00000E+00
 -1         6 3.33333E-01 3.33333E-01 0.00000E+00
 -1         7 6.66667E-01 3.33333E-01 0.00000E+00
 -1         8 1.00000E+00 3.33333E-01 0.00000E+00
 -1         9 0.00000E+00 6.66667E-01 0.00000E+00
 -1        10 3.33333E-01 6.66667E-01 0.00000E+00
 -1        11 6.66667E-01 6.66667E-01 0.00000E+00
 -1        12 1.00000E+00 6.66667E-01 0.00000E+00
 -1        13 0.00000E+00 1.00000E+00 0.00000E+00
 -1        14 3.33333E-01 1.00000E+00 0.00000E+00
 -1        15 6.66667E-01 1.00000E+00 0.00000E+00
 -1        16 1.00000E+00 1.00000E+00 0.00000E+00
 -1        17 0.00000E+00 0.00000E+00 3.33333E-01
 -1        18 3.33333E-01 0.00000E+00 3.33333E-01
 -1        19 6.66667E-01 0.00000E+00 3.33333E-01
 -1        20 1.00000E+00 0.00000E+00 3.33333E-01
 -1        21 0.00000E+00 3.33333E-01 3.33333E-01
 -1        22 3.33333E-01 3.33333E-01 3.33333E-01
 -1        23 6.66667E-01 3.33333E-01 3.33333E-01
 -1        24 1.00000E+00 3.33333E-01 3.33333E-01
 -1        25 0.00000E+00 6.66667E-01 3.33333E-01
 -1        26 3.33333E-01 6.66667E-01 3.33333E-01
 -1        27 6.66667E-01 6.66667E-01 3.33333E-01
 -1        28 1.00000E+00 6.66667E-01 3.33333E-01
 -1        29 0.00000E+00 1.00000E+00 3.33333E-01
 -1        30 3.33333E-01 1.00000E+00 3.33333E-01
 -1        31 6.66667E-01 1.00000E+00 3.33333E-01
 -1        32 1.00000E+00 1.00000E+00 3.33333E-01
 -1        33 0.00000E+00 0.00000E+00 6.66667E-01
 -1        34 3.33333E-01 0.00000E+00 6.66667E-01
 -1        35 6.66667E-01 0.00000E+00 6.66667E-01
 -1        36 1.00000E+00 0.00000E+00 6.66667E-01
 -1        37 0.00000E+00 3.33333E-01 6.66667E-01
 -1        38 3.33333E-01 3.33333E-01 6.66667E-01
 -1        39 6.66667E-01 3.33333E-01 6.66667E-01
 -1        40 1.00000E+00 3.33333E-01 6.66667E-01
 -1        41 0.00000E+00 6.66667E-01 6.66667E-01
 -1        42 3.33333E-01 6.66667E-01 6.66667E-01
 -1        43 6.66667E-01 6.66667E-01 6.66667E-01
 -1        44 1.00000E+00 6.66667E-01 6.66667E-01
 -1        45 0.00000E+00 1.00000E+00 6.66667E-01
 -1        46 3.33333E-01 1.00000E+00 6.66667E-01
 -1        47 6.66667E-01 1.00000E+00 6.66667E-01
 -1        48 1.00000E+00 1.00000E+00 6.66667E-01
 -1        49 0.00000E+00 0.00000E+00 1.00000E+00
 -1        50 3.33333E-01 0.00000E+00 1.00000E+00
 -1        51 6.66667E-01 0.00000E+00 1.00000E+00
 -1        52 1.00000E+00 0.00000E+00 1.00000E+00
 -1        53 0.00000E+00 3.33333E-01 1.00000E+00
 -1        54 3.33333E-01 3.33333E-01 1.00000E+00
 -1        55 6.66667E-01 3.33333E-01 1.00000E+00
 -1        56 1.00000E+00 3.33333E-01 1.00000E+00
 -1        57 0.00000E+00 6.66667E-01 1.00000E+00
 -1        58 3.33333E-01 6.66667E-01 1.00000E+00
 -1        59 6.66667E-01 6.66667E-01 1.00000E+00
 -1        60 1.00000E+00 6.66667E-01 1.00000E+00
 -1        61 0.00000E+00 1.00000E+00 1.00000E+00
 -1        62 3.33333E-01 1.00000E+00 1.00000E+00
 -1        63 6.66667E-01 1.00000E+00 1.00000E+00
 -1        64 1.00000E+00 1.00000E+00 1.00000E+00
 -3
    3C                            27                                     1
 -1         1    1    0    1
 -2         2         6         5         1        18        22        21        17
 -1         2    1    0    1
 -2         3         7         6         2        19        23        22        18
 -1         3    1    0    1
 -2         4         8         7         3        20        24        23        19
 -1         4    1    0    1
 -2         6        10         9         5        22        26        25        21
 -1         5    1    0    1
 -2         7        11        10         6        23        27        26        22
 -1         6    1    0    1
 -2         8        12        11         7        24        28        27        23
 -1         7    1    0    1
 -2        10        14        13         9        26        30        29        25
 -1         8    1    0    1
 -2        11        15        14        10        27        31        30        26
 -1         9    1    0    1
 -2        12        16        15        11        28        32        31        27
 -1        10    1    0    1
 -2        18        22        21        17        34        38        37        33
 -1        11    1    0    1
 -2        19        23        22        18        35        39        38        34
 -1        12    1    0    1
 -2        20        24        23        19        36        40        39        35
 -1        13    1    0    1
 -2        22        26        25        21        38        42        41        37
 -1        14    1    0    1
 -2        23        27        26        22        39        43        42        38
 -1        15    1    0    1
 -2        24        28        27        23        40        44        43        39
 -1        16    1    0    1
 -2        26        30        29        25        42        46        45        41
 -1        17    1    0    1
 -2        27        31        30        26        43        47        46        42
 -1        18    1    0    1
 -2        28        32        31        27        44        48        47        43
 -1        19    1    0    1
 -2        34        38        37        33        50        54        53        49
 -1        20    1    0    1
 -2        35        39        38        34        51        55        54        50
 -1        21    1    0    1
 -2        36        40        39        35        52        56        55        51
 -1        22    1    0    1
 -2        38        42        41        37        54        58        57        53
 -1        23    1    0    1
 -2        39        43        42        38        55        59        58        54
 -1        24    1    0    1
 -2        40        44        43        39        56        60        59        55
 -1        25    1    0    1
 -2        42        46        45        41        58        62        61        57
 -1        26    1    0    1
 -2        43        47        46        42        59        63        62        58
 -1        27    1    0    1
 -2        44        48        47        43        60        64        63        59
 -3
    1PSTEP                         1           1           1          
  100CL  101 1.000000000          64                     0    1           1
 -4  DISP        4    1
 -5  D1          1    2    1    0
 -5  D2          1    2    2    0
 -5  D3          1    2    3    0
 -5  ALL         1    2    0    0    1ALL
 -1         1 0.00000E+00 0.00000E+00 0.00000E+00
 -1         2 0.00000E+00 0.00000E+00 0.00000E+00
 -1         3 0.00000E+00 0.00000E+00 0.00000E+00
 -1         4 0.00000E+00 0.00000E+00 0.00000E+00
 -1         5 0.00000E+00 0.00000E+00 0.00000E+00
 -1         6 0.00000E+00 0.00000E+00 0.00000E+00
 -1         7 0.00000E+00 0.00000E+00 0.00000E+00
 -1         8 0.00000E+00 0.00000E+00 0.00000E+00
 -1         9 0.00000E+00 0.00000E+00 0.00000E+00
 -1        10 0.00000E+00 0.00000E+00 0.00000E+00
 -1        11 0.00000E+00 0.00000E+00 0.00000E+00
 -1        12 0.00000E+00 0.00000E+00 0.00000E+00
 -1        13 0.00000E+00 0.00000E+00 0.00000E+00
 -1        14 0.00000E+00 0.00000E+00 0.00000E+00
 -1        15 0.00000E+00 0.00000E+00 0.00000E+00
 -1        16 0.00000E+00 0.00000E+00 0.00000E+00
 -1        17 1.77915E+00 6.09740E+00 5.63771E+00
 -1        18 4.39206E-01 6.61578E+00 5.47446E+00
 -1        19-4.39206E-01 6.61578E+00 5.47446E+00
 -1        20-1.77915E+00 6.09740E+00 5.63771E+00
 -1        21 5.93003E-01 4.91692E+00 1.60381E+00
 -1        22 1.70664E-01 5.37507E+00 1.38032E+00
 -1        23-1.70664E-01 5.37507E+00 1.38032E+00
 -1        24-5.93003E-01 4.91692E+00 1.60381E+00
 -1        25-5.33073E-01 4.33420E+00-9.84757E-01
 -1        26-2.05205E-01 5.05100E+00-1.11263E+00
 -1        27 2.05205E-01 5.05100E+00-1.11263E+00
 -1        28 5.33073E-01 4.33420E+00-9.84757E-01
 -1        29-2.41851E+00 5.41569E+00-6.07482E+00
 -1        30-6.75237E-01 6.29698E+00-6.24293E+00
 -1        31 6.75237E-01 6.29698E+00-6.24293E+00
 -1        32 2.41851E+00 5.41569E+00-6.07482E+00
 -1        33 9.46748E-01 1.37479E+01 8.37944E+00
 -1        34 3.66419E-01 1.39565E+01 8.40742E+00
 -1        35-3.66419E-01 1.39565E+01 8.40742E+00
 -1        36-9.46748E-01 1.37479E+01 8.37944E+00
 -1        37 6.36237E-01 1.38138E+01 3.06867E+00
 -1        38 1.87176E-01 1.38908E+01 2.85998E+00
 -1        39-1.87176E-01 1.38908E+01 2.85998E+00
 -1        40-6.36237E-01 1.38138E+01 3.06867E+00
 -1        41 4.62225E-02 1.42771E+01-6.84134E-01
 -1        42 4.37808E-04 1.42344E+01-1.91846E+00
 -1        43-4.37808E-04 1.42344E+01-1.91846E+00
 -1        44-4.62225E-02 1.42771E+01-6.84134E-01
 -1        45-7.48698E-01 1.33970E+01-1.04696E+01
 -1        46 2.92166E-02 1.47262E+01-1.12149E+01
 -1        47-2.92166E-02 1.47262E+01-1.12149E+01
 -1        48 7.48698E-01 1.33970E+01-1.04696E+01
 -1        49 6.28333E-01 2.09088E+01 9.05266E+00
 -1        50 2.35037E-01 2.08865E+01 9.10883E+00
 -1        51-2.35037E-01 2.08865E+01 9.10883E+00
 -1        52-6.28333E-01 2.09088E+01 9.05266E+00
 -1        53 9.68616E-01 2.16181E+01 3.25208E+00
 -1        54 3.15511E-01 2.16207E+01 3.06732E+00
 -1        55-3.15511E-01 2.16207E+01 3.06732E+00
 -1        56-9.68616E-01 2.16181E+01 3.25208E+00
 -1        57 1.55321E+00 2.61266E+01-1.41005E+00
 -1        58-1.79278E-02 2.46079E+01-2.81333E+00
 -1        59 1.79278E-02 2.46079E+01-2.81333E+00
 -1        60-1.55321E+00 2.61266E+01-1.41005E+00
 -1        61 4.27147E+00 4.00867E+01-1.48659E+01
 -1        62 1.06647E+00 3.04697E+01-1.41447E+01
 -1        63-1.06647E+00 3.04697E+01-1.41447E+01
 -1        64-4.27147E+00 4.00867E+01-1.48659E+01
 -3
 9999
